189
Lattice="12.74922884 0.0 0.0 0.0 12.74922884 0.0 0.0 0.0 12.74922884" Properties=species:S:1:pos:R:3:forces:R:3 virial="18.351161043972215 -0.6509498450618196 -0.0645851498730632 -0.6509498450618196 18.75617127644173 -0.30396996748389915 -0.0645851498730632 -0.30396996748389915 18.07081066552953" energy=-970.66770677 pbc="T T T"
Mg       2.01990762       0.05557338       2.06351343       0.94887779      -0.99891543       0.06270926
Mg       6.40015967       0.03360633       2.25144356      -0.33717740      -0.87221457      -0.82725675
Mg      10.56585647       0.02354528       2.08724178       1.16189604       0.12062714      -0.01855810
Mg       2.14848819       4.27290685       2.08473656       0.06080027       0.22696572       0.08903190
Mg       6.36168096       4.17023795       2.12560383      -0.08968329       1.24964567      -0.20670954
Mg      10.58640249       4.30991518       2.06662003       0.37214401      -0.87500277       0.39182896
Mg       2.03121415       8.43521911       2.20886178       0.55335615       0.49300405      -0.22932958
Mg       6.39748705       8.56548691       2.04625250       0.02181208      -2.40291503       0.56821195
Mg      10.66119316       8.43192611       2.18113437      -0.75552248       0.71487926      -0.26990107
Mg       2.11135045      12.70442321       6.34235696       0.34802614       0.34641344       0.75818217
Mg       6.47706493      12.74749201       6.34833176      -0.65886711       0.62617903       0.36404782
Mg      10.56099353      12.62443225       6.39537883      -0.00994974       2.34087428      -0.07637055
Mg       2.18600420       4.21694258       6.36897837      -1.07884445      -0.31196434      -0.40139666
Mg       6.34735823       4.26202169       6.40110948      -0.04088504       0.89550567      -0.06187215
Mg      10.62745857       4.15689996       6.42239267       0.55022772       0.85953718      -0.08570464
Mg       2.17383531       8.46741933       6.41037856      -0.51516125      -0.04449833      -0.86314856
Mg       6.34776773       8.52248452       6.32684688       0.09765375      -0.53215120       0.51483783
Mg      10.60716422       8.58242324       6.44218801       0.23975419      -0.69391372      -0.78430491
Mg       2.11236032       0.06806813      10.59679948      -0.14290742      -1.19234604      -0.11592613
Mg       6.29699304      12.74766221      10.62208592       0.61586120       0.10663375       0.15568185
Mg      10.58225822      12.72537134      10.59353785       0.21598049       0.53356878       0.15914194
Mg       2.18212601       4.25749546      10.63828280      -0.44874325      -0.78273986       0.32741751
Mg       6.36118833       4.30639958      10.54607859      -0.11259008      -1.21467598       0.49303725
Mg      10.56233118       4.21462095      10.67503436       0.60748885       0.57638850      -0.58111528
Mg       2.11513722       8.53455129      10.54032920      -0.23265333      -0.44068005       0.58272025
Mg       6.40272545       8.49161431      10.69409382       0.32789301       0.13252150      -0.75418746
Mg      10.54505916       8.49540261      10.60919505       0.65182911       0.03316660       0.07834079
Mg       2.17241390       2.05262062       0.05638729      -0.33355929       0.48865625      -1.32139620
Mg       6.29865222       2.09202759       0.09659568       0.40060384       0.35112828      -1.94931916
Mg      10.67501307       2.13220984       0.03063793      -0.41819238      -0.12765866      -0.19087199
Mg       2.14892294       6.53656086      12.73029560      -0.42855727      -1.02480206       1.23791695
Mg       6.33789001       6.42495182       0.01730874       0.16125631      -0.88888401       0.00030598
Mg      10.55774464       6.40817970      12.67494227       0.41642244       0.02022721       0.85056125
Mg       2.14711497      10.52404575      12.68604341      -0.14999086       0.78749637       1.17573865
Mg       6.37147645      10.66710982       0.06000807       0.49822854       0.07425700      -0.92468594
Mg      10.74051402      10.62002730       0.03965495      -0.60789015      -0.08172866      -0.46118029
Mg       2.05636519       2.04845621       4.23137343       0.50113516       0.88825677       0.50092786
Mg       6.38791926       2.13807309       4.26243961      -0.22380017       0.38147943       0.01546620
Mg      10.60198536       2.07227393       4.25429145       0.28549030       0.50749496      -0.33071370
Mg       2.10881373       6.35135842       4.20063670      -0.24425491      -0.47290531       0.63937677
Mg       6.35418072       6.34674588       4.24623891      -0.41181727       0.29481621       0.02582430
Mg      10.54799238       6.36013767       4.18871745       0.74704699      -0.26334014       1.19602640
Mg       2.16583160      10.58688772       4.21246148      -0.17292590       0.05670047       0.11089146
Mg       6.40976685      10.63033773       4.26360374      -0.72562723      -0.64108490      -0.30474823
Mg      10.68768580      10.69599001       4.13789545       0.18681956      -0.35940638       1.94759546
Mg       2.09612111       2.17909985       8.50641603      -0.47118497      -0.51187923      -0.01627214
Mg       6.40157126       2.13415831       8.47704143       0.00802324       0.14499023       0.26760999
Mg      10.65862980       2.12189126       8.45511237      -0.20909147       0.16511148       0.27543765
Mg       2.20718411       6.40084060       8.41539534      -0.71231055      -0.99489635       0.87006459
Mg       6.36886860       6.38512170       8.47465095       0.53163370       0.26287321       0.40263425
Mg      10.63925556       6.48848683       8.50666337      -0.17966110      -1.12949168       0.30748993
Mg       2.15090748      10.54384633       8.52965265       0.11227299       0.91092099      -0.21834787
Mg       6.41330514      10.69231365       8.46824421      -0.11404226      -0.57986950       0.82117435
Mg      10.51288941      10.64504473       8.43395477       0.66616842       0.14492720       0.33903286
Mg       0.05243783       2.18934590       2.08874517      -1.09189224       0.06536996       0.08715659
Mg       4.22351825       2.10795648       2.15876598      -0.01420208       0.21011753      -0.00016567
Mg       8.54921775       2.06506029       2.09628660       0.02865429       0.56820874      -0.12647301
Mg      12.64506637       6.37580201       2.03783406       1.15818072      -0.50876884       0.75207136
Mg       4.26258469       6.43952674       2.12284668      -0.04441443      -0.36345711       0.32081809
Mg       8.46733429       6.29935075       2.13994059      -0.10776112       0.98174217      -0.37139012
Mg       0.03851083      10.59288088       2.10195975       0.28637561       0.32432755       0.15041782
Mg       4.21128460      10.67463302       2.11276727       0.16286185      -0.78659406      -0.01852835
Mg       8.53234363      10.66112738       2.21146581       0.08577379      -0.83704268      -0.96358399
Mg      12.73969573       2.02690504       6.22854141      -0.26295080       0.68140280       1.56014091
Mg       4.20024275       2.13160260       6.39108706       0.41755825      -0.25796030      -0.05951278
Mg       8.48917449       2.25330240       6.29296364       0.50362248      -0.67723172       0.60367840
Mg       0.09607934       6.40418218       6.41900086      -2.55402612      -0.45511794      -0.34783146
Mg       4.25327839       6.39819297       6.39943883      -0.18575173      -0.42349984      -0.63361484
Mg       8.56436370       6.30456646       6.34971288      -0.65681619       0.31407942       0.58514639
Mg       0.10891169      10.67144048       6.47396304      -1.43158297      -0.46308028      -0.55779767
Mg       4.30883851      10.65935128       6.43123285      -0.58533451       0.08268248      -0.62863785
Mg       8.38068786      10.60005997       6.33128158       1.57512403      -0.03071961       0.12685957
Mg      12.66295468       2.17976995      10.65823687       0.96972001      -0.19811386      -0.45345259
Mg       4.23040513       2.12101883      10.54853320       0.33007733       0.03280873       0.46493640
Mg       8.43486507       2.20812309      10.62300603       0.71931167      -0.42809380       0.35484289
Mg       0.09531425       6.38049730      10.67143232      -1.58735445      -0.20580289      -0.27457349
Mg       4.14721284       6.40432216      10.70235022       1.28210974      -0.45775905      -0.35624234
Mg       8.48011986       6.35530023      10.75543929       0.47059969      -0.06162826      -1.20848052
Mg      12.74156655      10.64216596      10.58612277       0.05838472       0.22896091      -0.15534790
Mg       4.24877205      10.55696363      10.70309376       0.70395316       0.68573478      -0.47432760
Mg       8.56942119      10.66586320      10.61460098      -0.61604377      -0.16437245       0.41406648
N        2.13284144       2.16718659       2.13695804      -0.08180808      -0.64430654      -0.24608070
N        6.38639598       2.07097364       2.06713944      -0.04228930       0.21417972       2.04892134
N       10.61738592       2.14343541       2.14280509       0.45497105      -0.37291755      -0.43381025
N        2.17027726       6.33019521       2.21988731      -0.78253560       0.87452698      -1.90044484
N        6.36685970       6.37754993       2.10174212      -0.10492485       0.29121681       0.24133088
N       10.61316337       6.38232107       2.07578520      -0.54181226      -0.03987076       0.47212490
N        2.17734250      10.66463826       2.10943577      -1.27252581      -0.58558982       0.14459254
N        6.36342914      10.45780102       2.10222009       0.50122746       3.38949367       0.85393601
N       10.69122690      10.62810407       2.16016648      -0.41702992       0.08946542      -0.75420064
N        2.14518537       2.04867677       6.43388087      -0.33826566       0.92407303      -0.94039662
N        6.40437265       2.25188405       6.34775218      -0.66177250      -1.51450036       0.08063934
N       10.56654913       2.10735076       6.29040309       0.46196470      -0.78801932       1.30325552
N        2.02566798       6.29539619       6.30129437       2.09295497       0.99052759       0.95834931
N        6.29576567       6.43047504       6.43147611       0.77090443      -1.08764863      -0.85305219
N       10.61478661       6.26085688       6.45293242       0.24671051       1.21069451      -1.26482228
N        2.13315405      10.52936664       6.35220778       0.68311933       0.92383619       0.47389144
N        6.37140072      10.67100306       6.37025788      -0.20269244      -0.59690637      -0.35712978
N       10.63131088      10.70207395       6.39781075      -0.29493898      -1.52511692      -0.65219398
N        2.18690544       2.01782759      10.57155537      -1.20863945       2.03066347       0.91297595
N        6.36242042       2.21297723      10.65022360      -0.16485969      -0.84677727      -0.31604638
N       10.63758197       2.12479757      10.69831458      -1.05402543      -0.20165359      -0.64813968
N        2.10591265       6.31255207      10.72385537       0.60823585       1.48955059      -1.30445135
N        6.43015503       6.25084873      10.59205715      -1.12584428       2.26319575       0.89525288
N       10.62582055       6.37475632      10.66993187      -0.06751301       0.72414805      -0.50852664
N        2.16650400      10.63815314      10.67812643      -0.24217441      -0.49019992      -1.74648612
N        6.45446450      10.62361162      10.64936315      -0.99075534      -0.10259568      -0.06845160
N       10.67884115      10.59376262      10.46698097      -0.70683800       0.28100240       1.64439108
F       12.73721142       2.16048432      12.69486256       0.36982339      -0.04458112       0.55132756
F        4.18105567       2.14884478      12.72295140       0.48224924      -0.21142297       0.51353102
F        8.49298294       2.04378094       0.06705304      -0.08618027       0.19869889      -0.19041126
F        0.02164806       6.37911056       0.06605222       0.02619767       0.19194491      -0.46618034
F        4.15570242       6.36774322       0.01380308       0.58183354       0.21696891      -0.19284594
F        8.51809446       6.39533026      12.71732466      -0.32207479       0.03641351       0.44697852
F        0.08790530      10.66395413      12.70502573      -0.58041020      -0.22397607       0.19170672
F        4.20290925      10.61491563      12.71824605       0.48983790       0.01572193       0.23342597
F        8.53185585      10.61019000       0.02308579       0.15025900       0.11001720       0.17948522
F       12.72856859       2.04000283       4.31898575       0.32253429      -0.02183110      -1.10838463
F        4.21564968       2.13569281       4.21694921       0.35934496      -0.14791406       0.04307758
F        8.60469410       2.13066846       4.30410638      -1.35545631      -0.10058770      -0.88699056
F        0.00394104       6.38120603       4.16706454      -0.32407361       0.02746081       0.18594792
F        4.19238514       6.18645786       4.25808434       0.31420712       0.59555692       0.14063664
F        8.39155160       6.37915927       4.23531664       0.58395221      -0.14692361       0.12065981
F       12.72922211      10.53820033       4.24775071       0.32445848       0.35170626       0.01007650
F        4.25213185      10.68438885       4.17146404       0.15507445      -0.10226770       0.55865637
F        8.50745051      10.60466869       4.26536428      -0.17635386       0.12330538      -0.30853251
F       12.66237548       2.14575628       8.50731664       0.46785425       0.02469378       0.04691789
F        4.17177206       2.14025550       8.56188920       0.77036108       0.12230329      -0.83940952
F        8.46736629       2.21401718       8.51863311       0.07118071      -0.24516018      -0.06126243
F       12.69379430       6.44914705       8.53352332       0.76027036       0.07088822       0.01332766
F        4.25311635       6.33365408       8.56846373      -0.37781870       0.13853651      -0.18172100
F        8.49805815       6.41353552       8.47448801      -0.00973861       0.02877079       0.14493342
F       12.72416131      10.64990640       8.46665756       0.69061830      -0.09273341       0.29130343
F        4.33218401      10.56356658       8.39507600      -0.45898131      -0.00233786       0.71449986
F        8.47404510      10.79530612       8.45830618      -0.05219050      -0.37327079      -0.04603919
F        0.11565552       0.01830853       2.04154472      -1.05683907       0.11223770       0.19157979
F        4.23949966      12.63263816       2.09578938       0.36009253       1.14001242       0.05674708
F        8.61785067      12.74338536       2.11599984      -1.20720080      -0.24151397       0.25924961
F       12.65164178       4.25951264       2.09643972       0.50016662      -0.08864239      -0.01238676
F        4.29401919       4.32465138       2.11017548      -0.09272916      -0.78780493      -0.08476423
F        8.59254625       4.36687211       2.04466994      -0.78644389      -1.05541656       0.22528082
F       12.65831817       8.46567052       2.11796539       0.65126889       0.19483050      -0.06805309
F        4.15514873       8.52891983       2.09261099       0.30334826      -0.15159200       0.06576139
F        8.53105290       8.42193633       2.06687183      -0.02340701       0.45804471       0.29333941
F        0.00829465       0.03210524       6.51439467       0.10138676      -0.56177539      -0.42239850
F        4.30378510       0.00487989       6.37302089      -0.05824995      -0.02147793      -0.02339312
F        8.46998040      12.70493254       6.28451562      -0.10197758       0.15847839       0.07782570
F       12.68393354       4.15840348       6.32031724       0.60931526       0.07087942       0.06328900
F        4.14398142       4.29671553       6.32447578       0.70466438      -0.33231832       0.31796444
F        8.54058575       4.20245907       6.41068964      -0.48900834       0.67147117      -0.16099053
F       12.70470318       8.50478286       6.47015740       0.38359938       0.03100499      -0.05516154
F        4.24085236       8.44012247       6.35514074      -0.22382255       0.33248485       0.05900909
F        8.38758570       8.50384439       6.33137069       0.54543477       0.22410032       0.09372807
F       12.69969044       0.01321942      10.65028479       0.23518582      -0.21041187      -0.08473476
F        4.25909765      12.72775837      10.52665348       0.13865452      -0.10738106       0.21024731
F        8.44455601      12.67307553      10.70504018       0.31311221       0.56577134      -0.24061838
F       12.62330330       4.36268603      10.58526258       0.77040658      -0.68284154       0.20518035
F        4.21994235       4.16565524      10.64001491       0.08989141       0.68714259      -0.04562960
F        8.57115369       4.29424753      10.64623538      -0.53109114      -0.29145314       0.06123542
F        0.04815040       8.57733770      10.64130143       0.13111992      -0.41099404      -0.06287713
F        4.32102716       8.54409931      10.64329656      -0.47746908      -0.58806020      -0.00089455
F        8.54883450       8.52638936      10.65885164      -0.47805324      -0.12233645      -0.02701695
F        2.07763460      12.68100338      12.71815629       0.20016781       0.49609320       0.17111015
F        6.40063037       0.04094249      12.73442036      -0.26928627      -0.34939611       0.39141366
F       10.66014772      12.74238748       0.00672076      -0.00819491      -0.34306207       0.04966262
F        2.06807765       4.21520333      12.71995138       0.11275054      -0.08429617       0.22125837
F        6.41077570       4.28365662       0.11076109      -0.10950305      -0.31421638      -0.34840341
F       10.61960951       4.22729100       0.01626865      -0.05356395       0.22512726      -0.04307038
F        2.10272725       8.52706226       0.03786891      -0.02514679      -0.18473612      -0.18038389
F        6.32231479       8.48029376       0.01264813       0.01364876       0.00139355      -0.34721374
F       10.60193513       8.54797648       0.05939177       0.19550129       0.02094817      -0.29086243
F        2.10878824       0.07286465       4.31868002      -0.07315100      -0.68612100      -0.39834971
F        6.34693699      12.72037823       4.31084282       0.21852051       0.26506483      -0.61479339
F       10.58908174       0.06749327       4.22328774       0.12420487      -0.80099152      -0.12366115
F        2.14499082       4.20183946       4.17538290      -0.19317589      -0.22512633       0.39441264
F        6.33368289       4.29105959       4.22819875       0.24720208      -0.50792761      -0.04856380
F       10.55498074       4.11376511       4.23731075       0.02723677       0.93824994      -0.20431933
F        1.98977673       8.51484684       4.22582688       0.33924181      -0.14300519       0.29756083
F        6.27454062       8.42334563       4.32326618       0.11966215       0.56260744      -0.43372241
F       10.58265358       8.50247206       4.38708843      -0.02173701      -0.06980001      -0.71918334
F        2.11261772       0.08791702       8.47808636       0.03261598      -0.99627259      -0.00711305
F        6.36612178      12.72937077       8.46258036       0.03338596       0.49069097       0.01505656
F       10.58825929       0.05328413       8.52853531      -0.13513549      -0.15743404      -0.19284248
F        2.11925548       4.30436723       8.57788949       0.06083675      -0.05252916      -0.42092583
F        6.44919180       4.27899040       8.46667057      -0.28541661      -0.20719880       0.01645211
F       10.67334203       4.27303957       8.55224683      -0.22504673      -0.41353996      -0.09449058
F        2.19833359       8.39148760       8.48394386       0.00572399       0.54615000       0.15010502
F        6.40147195       8.46015762       8.51501807      -0.08367347       0.42363297       0.04802777
F       10.66786458       8.53882304       8.43789148      -0.33163430      -0.02067085       0.35505582
189
Lattice="12.74922884 0.0 0.0 0.0 12.74922884 0.0 0.0 0.0 12.74922884" Properties=species:S:1:pos:R:3:forces:R:3 virial="16.620046632472704 -0.11149046901122178 0.4515573374645709 -0.11149046901122178 17.348990399581904 0.11908803642204352 0.4515573374645709 0.11908803642204352 16.699698958600244" energy=-970.68886492 pbc="T T T"
Mg       2.07520613       0.02226054       2.10379436       0.24753479      -0.66547784       0.32682758
Mg       6.41193078      12.72267997       2.06689096      -0.20340912       0.40181434       0.14557566
Mg      10.54114260      12.72666755       2.21410005       0.93933656       0.68513972      -1.15529312
Mg       2.12366289       4.12981920       2.14345352      -0.10283809       1.80720099      -0.50662661
Mg       6.40227935       4.15307940       2.09461122       0.09702249       0.90908810      -0.39192315
Mg      10.64748392       4.23571569       2.05315851      -0.16476929      -0.00336320       0.33764368
Mg       2.23442207       8.40708705       2.16257507      -0.90554694       1.55896360      -0.29146400
Mg       6.36210245       8.56209561       2.13391250       0.13560348      -0.33950379      -0.57420192
Mg      10.67293775       8.44824653       2.07873524       0.46470091       0.71774389       0.53602768
Mg       2.22382925       0.04532427       6.43893874      -0.57975063      -0.72926235      -0.71250085
Mg       6.34040671       0.01218112       6.37115785       0.25589420       0.35672483      -0.09179621
Mg      10.57391016      12.69038707       6.24390818       0.21476514       0.42722631       0.56772289
Mg       2.10139942       4.33367184       6.44551607       0.13836002      -0.31241049      -0.30016826
Mg       6.42234932       4.24894646       6.38053491       0.14754076       0.65090586       0.25572888
Mg      10.73810926       4.20887270       6.33039117      -1.15098415       0.87489157       0.61356493
Mg       2.06971963       8.52154733       6.40223728       0.18241867       0.32425689       0.04783829
Mg       6.30504800       8.43237004       6.37973846       0.62468349       1.48782715       0.01128008
Mg      10.70249544       8.42633558       6.42422728      -0.34349038       1.12841955      -0.73504287
Mg       2.15302883       0.06003497      10.55904404      -0.05507160      -0.56815981       0.81992140
Mg       6.34960337       0.04261175      10.56839458       0.08131382      -0.77621309       0.28759894
Mg      10.73011677       0.01636045      10.59659588      -0.86990372      -0.32245452      -0.02148104
Mg       2.16302970       4.17911702      10.69933975      -0.51503848       1.77701367       0.19305513
Mg       6.43949920       4.23119227      10.65201831      -0.40015812       0.26694735      -0.36176226
Mg      10.60563648       4.25641917      10.66579487       0.20695926       0.34652070      -0.55941373
Mg       2.18438976       8.51819951      10.60261683      -0.32801095      -0.25875464       0.22693953
Mg       6.29488814       8.54703648      10.62441240       0.77628080      -0.52157850       0.00564463
Mg      10.61675177       8.48430173      10.62982305      -0.10407336       0.58606179       0.03206970
Mg       2.09651111       2.03538544       0.05276230       0.30837578       0.57687795      -1.02448367
Mg       6.38862162       2.13742377      12.64940722      -0.24554737      -0.48637175       0.61174746
Mg      10.55953578       2.04447118      12.72090388       0.37497871      -0.18673459       0.74034012
Mg       2.16329361       6.39717864      12.74587758      -0.75553714       0.04951945       0.52365533
Mg       6.40877547       6.38904463      12.72761584      -0.10850030       0.08984608       0.16031790
Mg      10.55586783       6.36683127      12.72365707       0.26050981       0.17712967       0.77303261
Mg       2.01092312      10.66256141       0.03623713       1.04114963      -0.32567135      -0.30599327
Mg       6.40575467      10.60649833      12.71595578      -0.01277280       0.34738357       0.23932324
Mg      10.56875717      10.62322940       0.06983148       0.37479343       0.37410647      -0.53960055
Mg       2.11102407       2.16866563       4.31397849      -0.31613289      -0.35230076      -1.04238192
Mg       6.43329708       2.13722909       4.29358495      -0.21359857      -0.49718183      -0.41517208
Mg      10.62532588       2.24063209       4.25854650       0.35099379      -0.63786628      -0.72480842
Mg       2.09925832       6.37732299       4.32464564      -0.05074238       0.14201862      -2.26585700
Mg       6.30596734       6.33074904       4.13728808       0.47681565       0.43188801       0.67909744
Mg      10.62255229       6.37481752       4.21686468      -0.26577970      -0.01013244       0.99292609
Mg       2.13316310      10.62753456       4.30105205      -0.25493371      -0.02151964      -0.99399830
Mg       6.31251522      10.48935243       4.20777448       0.39741402       1.25712482       0.67091427
Mg      10.54530242      10.59789910       4.27013300       0.78897914      -0.23281440       0.00210797
Mg       2.17847539       2.15443456       8.47148761      -0.54508029       0.35368347       0.89551962
Mg       6.30829178       2.11032592       8.50785950       0.59931746       0.19324948      -0.53929408
Mg      10.47621868       2.13841056       8.52258448       0.53891993       0.16184155      -0.77382058
Mg       2.06060750       6.33633461       8.58232940       0.09662886       0.59740909      -0.12525451
Mg       6.25658882       6.36303442       8.48392550       0.61010880      -0.00833845       0.48464875
Mg      10.60476214       6.48116559       8.46926861       0.33029800      -1.02439044       0.54438561
Mg       2.17365708      10.69087949       8.51735411      -0.17438678      -1.05245080      -0.16468965
Mg       6.36190344      10.56566701       8.43874198       0.34175709       0.38509522       0.91449746
Mg      10.68646838      10.62049686       8.42187641      -0.75938113       0.33411445       1.44077755
Mg       0.02826708       2.17106108       2.11005972      -0.63980932      -0.65854103      -0.03393302
Mg       4.24686795       2.14575055       2.13250053       0.24310668      -0.66206140      -0.42339293
Mg       8.45003359       2.18763087       2.16604681       1.46188422      -1.10244198      -0.72345443
Mg      12.73269373       6.34624088       2.18598635       0.06204836       0.38814059      -0.65471173
Mg       4.28961739       6.41607274       2.06464403      -0.97725869      -0.37302226       0.03475952
Mg       8.47707789       6.51112743       2.16006219       0.20766971      -0.57722817      -0.00064631
Mg       0.00424027      10.55974844       2.10516644       0.68724057       0.23699113       0.67051907
Mg       4.26386051      10.56399992       2.10377690      -0.56904522       0.90421773      -0.14074411
Mg       8.49152506      10.59650153       2.17443937       0.32808662       0.52433351      -0.16267595
Mg      12.66992124       2.06296062       6.47821784       0.69253208      -0.02717613      -0.21670885
Mg       4.14646994       2.19395270       6.35566358       1.97269045       0.14851390       0.02407412
Mg       8.51658762       2.05112692       6.36176383       0.12177303       0.54809378       0.19802682
Mg      12.72371432       6.35479625       6.34502167       0.25741411       0.28552695       0.08957793
Mg       4.23428230       6.50167566       6.33017380       0.26319514      -0.55154283       0.02722624
Mg       8.53345014       6.42836287       6.42090177      -0.21565173      -0.39977532      -0.41821491
Mg      12.71485756      10.71204945       6.41159139       0.36270859      -0.58292662      -0.68721858
Mg       4.26999365      10.70298475       6.41553830       0.09642775      -0.47543060      -0.26373155
Mg       8.40997131      10.60863459       6.36684147       0.98979272      -0.19361202       0.43897751
Mg      12.68504603       2.09255592      10.61145702       0.81426865       0.67646790       0.06268918
Mg       4.26204336       2.14513285      10.59675244      -0.62177915      -0.04784653       0.56979099
Mg       8.52276794       2.08856503      10.64088415      -0.60139445       0.25149687      -0.28483346
Mg       0.04348928       6.39719037      10.71085370      -0.64077828      -0.29248371      -0.03539728
Mg       4.32123025       6.33645713      10.63513463      -0.89486054       0.05548683       0.28977001
Mg       8.53668015       6.44340735      10.53118175      -1.01291531      -0.24799695       0.39442925
Mg      12.72720161      10.57641589      10.65542324       0.06094262      -0.03718160      -0.22651173
Mg       4.31958050      10.59942697      10.72117701      -0.88553003       0.28023843      -0.29259028
Mg       8.51318740      10.71866860      10.66370693      -0.32430102      -0.23555192      -0.67198569
N        2.14564077       2.10565103       2.03970144      -0.21619163       0.10162128       1.56978859
N        6.46487488       2.07681381       2.00364904      -1.73720984       0.62102779       1.54522408
N       10.65575740       2.11548655       2.06882654      -0.02403386       0.60980705       0.34133121
N        1.98543741       6.47113424       2.13439442       2.20547970      -1.73992648       0.01917894
N        6.37241403       6.46154338       1.98618591      -0.12323483      -1.06488217       2.02769123
N       10.59858310       6.37578187       2.24759253      -0.39037547       0.12041598      -1.96416951
N        2.15401472      10.58874784       2.12660337      -0.17050921       0.17383418      -0.04743197
N        6.37738317      10.66828734       2.12901858       0.24246356      -0.66399321      -0.22615623
N       10.74021645      10.66818369       2.15506449      -1.91003207      -1.06709397      -0.24704988