72
Lattice="13.194012 0.0 0.054083 0.0 9.924107 0.0 -2.58061 0.0 13.041131" Properties=species:S:1:pos:R:3:forces:R:3 virial="2.812043904943372 0.48789585249862566 -2.191459858939888 0.48789585249862566 4.668748818659214 -0.846442770556519 -2.191459858939888 -0.846442770556519 -0.45176089409763126" energy=-260.14020809 pbc="T T T"
K        3.20274179       1.33771395       1.63836018       0.00240868      -0.01177625      -0.00341194
K        7.64934251       1.31407840       1.50921668      -0.22120900      -0.14061962       0.02649684
K       11.90338337       1.46058710       1.46256094      -0.18578151      -0.27824334       0.26749082
K        3.03837880       6.34934591       1.63637541       0.13141338       0.02548634       0.08803826
K        7.59825531       6.43798307       1.60767101      -0.11921713      -0.05807330      -0.17379710
K       11.96305727       6.40727272       1.50278411      -0.21598414      -0.26766287      -0.02435746
K        1.93629305       1.08684523       8.11272997      -0.11450803      -0.07468642      -0.03292108
K        6.28258547       1.14763247       8.02268034       0.06511511       0.13574843      -0.10825104
K       10.65099630       1.04966625       8.28030536      -0.00657793       0.12381167      -0.25185133
K        1.80559274       6.03450560       8.30576908       0.01613089       0.04646199      -0.07394980
K        6.29572128       6.03537713       7.86689143       0.01326052       0.17338544       0.23117464
K       10.72294958       5.94648601       8.32695240      -0.05331586       0.00620444      -0.28400421
K       -0.09914616       3.84372533       4.95312505       0.01409020      -0.38465056       0.21006386
K        4.40030369       3.73336390       5.14250757      -0.06933778      -0.02943808      -0.07934153
K        8.62613089       3.68027976       4.89358453       0.29240339       0.21869188       0.10210270
K       -0.09624714       8.68028324       4.94173927       0.08372803       0.03592400       0.11496716
K        4.42146429       8.56269676       4.93422194      -0.06342266       0.10551406       0.03870175
K        8.70880489       8.76955872       4.97812521       0.09724350      -0.19452081       0.03393846
K       -1.40373518       3.84834421      11.54402522       0.25168398      -0.10128002       0.04372150
K        3.01029755       3.67935850      11.54720427       0.02515936       0.11713830       0.06582753
K        7.53966121       3.72434101      11.45659127      -0.10463086       0.03563887      -0.06725643
K       -1.40747734       8.80995559      11.57938588       0.07337965      -0.08857486       0.06318354
K        3.10870538       8.72527339      11.59622840      -0.08078455      -0.03073627       0.02796169
K        7.59847136       8.80328689      11.36724606      -0.07710269      -0.30675189       0.04936984
H        1.55807225       1.53369303       3.86848249       0.04749608      -0.02641543       0.28334112
H        5.54875390       1.36052600       4.04582525       0.24219530      -0.05687628       0.07437412
H        9.91588933       1.29747547       4.08257071       0.12327219      -0.05215192       0.01752016
H        1.17618961       6.20689210       4.10822339       0.09005763       0.05271518       0.07992268
H        5.89107325       5.65381566       3.79918097       0.10970045       0.13358662       0.07804591
H       10.22836794       6.24428643       3.70285026       0.06714606      -0.03140718       0.26428006
H        0.02431847       1.12702605      10.40439891       0.13799014       0.10727136       0.20080838
H        4.74677586       1.67134059      10.19204079       0.03159682      -0.03454192       0.29103824
H        8.69621201       1.15890149      10.76249629       0.06592745       0.15531237      -0.06500113
H       -0.07872132       6.40881364      10.69962151       0.12936458       0.02340374       0.07932333
H        4.71242795       6.79064385      10.28901737       0.06784958      -0.15638221      -0.01509171
H        8.65578169       6.32683803      10.61476311       0.17212035      -0.08022042       0.02935538
H        1.60069672       4.15285144       2.78985527      -0.13188627      -0.14437581      -0.21852884
H        6.60240299       3.82973145       2.23005912      -0.22032176      -0.00854743       0.00977674
H       10.58968086       4.01640063       2.31825377      -0.08019565      -0.04278205       0.05741582
H        1.54293547       8.90167201       2.70343846      -0.06147240      -0.00178453      -0.21667213
H        6.26617867       8.82025691       2.80585633      -0.19697954       0.03663430      -0.25208776
H       10.49059882       8.98399188       2.56346264      -0.01944279       0.00831237      -0.11963463
H        0.38327143       3.32998299       9.30568834       0.02294230       0.00349325      -0.08066394
H        4.66169224       4.24022080       9.24284544      -0.07640417      -0.10462397       0.00178637
H        9.36250364       3.39936243       9.10585718      -0.17485557       0.10038740      -0.12872399
H        0.32451323       8.60563679       9.46004576      -0.04473633      -0.06476735      -0.31675421
H        4.58794776       9.18566085       9.25484009       0.08441411      -0.06853869      -0.06177354
H        9.63959999       8.41704700       8.55882880      -0.20352993       0.10136457      -0.00660093
S        2.34045900       1.20829436       4.93660849      -0.12432766      -0.02242312      -0.34607111
S        6.69012744       1.30113974       4.78205771      -0.26460968      -0.13390352      -0.01876583
S       11.00029330       1.10272033       4.87153570      -0.07890957       0.23274651      -0.04431674
S        2.21180780       6.16649096       4.98351001      -0.07787268      -0.00417006      -0.18737689
S        6.67340932       6.23777532       4.75411596      -0.10119803      -0.12218608      -0.04829256
S       11.09738199       6.15872971       4.74538652      -0.23811676       0.15668535      -0.09852518
S        0.91790582       1.34831379      11.40674240      -0.21482077      -0.21807916      -0.15185890
S        5.32168007       1.05205409      11.26958736       0.00220149       0.27282519      -0.20648132
S        9.86002404       1.36822800      11.41491781      -0.09542064      -0.05737510      -0.04207089
S        0.97192555       6.36793346      11.55926787      -0.24796346      -0.16493558      -0.17425407
S        5.25852152       5.94629190      11.20724945       0.08031515       0.34424406       0.05971157
S        9.80090326       6.19110056      11.33036326      -0.16240771       0.20489082       0.12687842
S        0.76150255       3.65791916       1.83412652       0.36880817       0.35039707       0.06269790
S        5.29319877       3.88310985       1.86966042       0.08301770      -0.01906782      -0.11970056
S        9.46702524       3.82118530       1.58850759       0.19832564       0.07344629       0.02315587
S        0.64847795       8.70936891       1.69644643       0.44171034       0.27160170       0.22419853
S        5.35383180       8.82215361       1.79351926       0.00450700      -0.03096588       0.02374531
S        9.66829763       8.77829124       1.50381939       0.11962779       0.05806012       0.16283284
S       -0.44292362       3.46024772       8.24058356      -0.00596065       0.12306648       0.08947831
S        3.92091067       3.55446282       8.32453304       0.17882724       0.07090415       0.01666288
S        8.36770086       3.73960329       8.24232021       0.15880452      -0.27631698       0.06592953
S       -0.41857853       8.49487254       8.32328775       0.00025097       0.10410961       0.21632932
S        4.13846948       8.49876388       8.17175948      -0.13695947       0.08583562       0.11807230
S        8.34906382       8.67824791       8.22227601       0.17577789      -0.20544675      -0.00133094
72
Lattice="13.194012 0.0 0.054083 0.0 9.924107 0.0 -2.58061 0.0 13.041131" Properties=species:S:1:pos:R:3:forces:R:3 virial="2.0572833784763853 0.6492268180105073 -2.714661503029045 0.6492268180105073 5.357460030054789 0.3335058243839351 -2.714661503029045 0.3335058243839351 1.836111699718071" energy=-259.96361772 pbc="T T T"
K        3.18995878       1.39017337       1.68153152      -0.14579483       0.09356625      -0.03870190
K        7.44685115       1.37311195       1.33921093       0.17399971      -0.00012315       0.23264210
K       11.78949676       1.26224320       1.55776301       0.11730774       0.24749063      -0.01590007
K        3.16070392       6.37712328       1.66902201      -0.22720929       0.02902882       0.12376677
K        7.42253780       6.43087790       1.45779855       0.29418907      -0.06087865       0.08760057
K       11.80002148       6.20738255       1.47207339       0.02331070      -0.01626566       0.17201979
K        1.87288988       1.03267896       8.11182480       0.13735360      -0.10007484      -0.03039816
K        6.21042897       1.23528327       8.06730607       0.08717666      -0.05455712      -0.08971757
K       10.73613287       1.11992257       8.27200628      -0.17002885      -0.15291259      -0.18974877
K        1.76283350       5.96239356       8.28265243       0.10244232       0.16843711      -0.13200184
K        6.26783971       6.09983708       7.87160628       0.01197846       0.06864529       0.15357527
K       10.78888907       5.95029727       8.37984849      -0.13570082       0.09530669      -0.29757259
K       -0.12326086       3.76716363       5.07934900       0.10013239       0.01111122      -0.29123239
K        4.44504160       3.70317527       5.11931782      -0.00030858       0.14285253      -0.24358650
K        8.85215296       3.81659739       4.98767658      -0.06130587      -0.17155798      -0.03419799
K       -0.09840157       8.70532752       5.04652065       0.01620688      -0.05152482      -0.09321224
K        4.43054633       8.52111227       4.92304149      -0.04517168       0.15910399       0.20806704
K        8.81410113       8.76405451       5.05281622      -0.05962709      -0.06695516      -0.05106743
K       -1.16179538       3.90717511      11.59207827      -0.12734042       0.00860849       0.08134702
K        2.96917056       3.60180756      11.60530008       0.11560675       0.12146870      -0.06330798
K        7.48229877       3.59442512      11.44418869      -0.02749866       0.00525653       0.04715859
K       -1.33202079       8.82902328      11.58656573       0.08525402       0.02816151      -0.14249805
K        3.07044030       8.55319165      11.64915702       0.17589644       0.32533925      -0.17007218
K        7.63751594       8.55418635      11.34069239      -0.15788552       0.06875033       0.10915466
H        1.25220945       1.16505007       4.24910987       0.29283834       0.09957536       0.06616996
H        5.68137934       1.22519720       4.03871746       0.13158632      -0.00895300       0.13594131
H       10.00811570       0.96299515       3.83132367       0.02227996       0.07594371      -0.00007024
H        1.39678952       6.36164178       3.97858693      -0.04695927      -0.05230113       0.01105427
H        5.82490472       5.97495520       3.83067147       0.06324064      -0.03452117       0.02712014
H        9.73324870       6.32366212       4.10832994       0.14373873      -0.03178672       0.00304276
H       -0.04553393       1.78130287      10.62248425       0.15947104      -0.26667377       0.05390727
H        4.52078492       1.52917230      10.16255704       0.04621753      -0.03781872       0.24828687
H        9.01570114       1.19161273      10.44328398      -0.05175239       0.01711435       0.05026842
H        0.10097040       6.64860735      10.59943560      -0.00431696       0.01383394       0.07051522
H        4.30762768       6.45375912      10.28582163       0.21853263      -0.12493942       0.11670560
H        8.87652209       5.86941738      10.53789620       0.17761691       0.13504388       0.13963111
H        1.83667385       3.79025752       2.29176814      -0.19398562       0.03413149       0.01054352
H        6.21424386       3.64886410       2.69609667      -0.17046711       0.15978726      -0.22413432
H       10.39938362       3.84011961       2.68435662       0.08312797      -0.01059123      -0.09600129
H        1.78359663       9.00346179       2.28919944      -0.18433662      -0.09415989      -0.04948256
H        6.04063023       8.93598798       2.94597509       0.09859053       0.02522608      -0.32414329
H       10.80602996       8.65123667       2.51242427      -0.06173816      -0.01266930      -0.03048752
H        0.82033766       3.31473292       8.81342376      -0.06249793       0.12198064       0.03191665
H        4.67635603       4.11867431       9.15116783      -0.18746388      -0.13566912      -0.14804275
H        9.32161763       3.50930734       9.12650341      -0.21876400       0.00407001      -0.15892803
H        0.73612112       8.65406226       8.95607164      -0.22864126      -0.10003029      -0.01269715
H        5.00482777       8.74412998       9.08820939      -0.08958968      -0.02514552      -0.06372967
H        9.35024109       8.38754193       9.04091003      -0.18380231       0.05214455      -0.19635444
S        2.43685507       1.26327253       4.91794839      -0.40286778      -0.13762058      -0.14654516
S        6.73248387       1.30889911       4.89649487      -0.23842564       0.01066372      -0.28204875
S       10.84378568       1.22773559       4.86009114       0.36623502       0.11689655       0.11703766
S        2.25072494       6.27208247       5.02290310      -0.08780696      -0.11285562      -0.06826479
S        6.78002465       6.23764244       4.75518860      -0.11012311       0.04632775      -0.01617354
S       10.92515555       6.30168717       4.75392665       0.12460534      -0.07611754       0.18260065
S        0.88334467       1.30249369      11.49214855       0.01871704      -0.03756989      -0.18024981
S        5.26887123       1.14143536      11.23229399      -0.00113237      -0.01957721      -0.07775622
S        9.93916701       1.40667905      11.40880538      -0.20730603      -0.02755173      -0.12759075
S        0.94572985       6.38856489      11.62624785      -0.02874348      -0.30158838      -0.27211599
S        5.10348054       5.93469022      11.26303151       0.11288755       0.27947311      -0.16170838
S        9.84664158       6.23369215      11.42387973      -0.23751236      -0.11360144      -0.34087080
S        0.65123702       3.80542443       1.62929221       0.37855142      -0.05630570       0.24353880
S        5.33671760       4.04866707       1.73107838      -0.06137558      -0.39956666       0.23659044
S        9.57227311       3.84964457       1.61645306      -0.13991801      -0.07862953      -0.06582024
S        0.66308710       8.79558241       1.54794132       0.33124832      -0.06860322       0.50206229
S        5.33623190       8.88984654       1.78572246      -0.13805717      -0.02019252       0.07198326
S        9.86009228       8.75651934       1.55136658      -0.40405913       0.02753731      -0.03262831
S       -0.39857553       3.42204566       8.24135267       0.04742989       0.19106424       0.05953776
S        3.92926127       3.61324549       8.12274882       0.05967242       0.04077085       0.45506788
S        8.35331810       3.64412921       8.17501585       0.32862387       0.03203109       0.31361192
S       -0.43908729       8.45769664       8.30435571       0.17667868       0.08405486       0.03546758
S        4.12146259       8.52412146       8.08347027      -0.20045117      -0.02460059       0.25178604
S        8.31944687       8.63565662       8.18281897       0.27722069      -0.05630823       0.30934050
72
Lattice="13.194012 0.0 0.054083 0.0 9.924107 0.0 -2.58061 0.0 13.041131" Properties=species:S:1:pos:R:3:forces:R:3 virial="1.916652879451876 0.7424210502055657 -1.3831162446657894 0.7424210502055657 6.642231544376675 0.47241584627638805 -1.3831162446657894 0.47241584627638805 1.2901736264913393" energy=-260.04230996 pbc="T T T"
K        3.07786408       1.48686246       1.68917284      -0.02541104      -0.07281452      -0.07498409
K        7.34870516       1.43234031       1.33783144       0.07317066      -0.17127497       0.26405779
K       11.76505210       1.15968748       1.66044515       0.19606001      -0.03959307      -0.11576711
K        3.14475909       6.42352831       1.77716824      -0.13398285      -0.03355208      -0.18989836
K        7.42558088       6.39149071       1.35872871       0.04921245       0.05412958       0.13878401
K       11.64658511       6.02014035       1.53616748       0.29519067       0.48748325      -0.10528046
K        1.86700066       0.94105434       8.09582119      -0.04367642       0.09422121       0.00659099
K        6.18282963       1.31296124       8.05205244       0.05314926      -0.11763522      -0.04888945
K       10.68864566       1.14073839       8.13555935      -0.03549978       0.02307285       0.05857866
K        1.80076167       6.03164934       8.14963061      -0.01837388       0.01789552       0.03948166
K        6.25025850       6.19094604       7.98543817       0.00098403      -0.20280629       0.01909829
K       10.75575065       5.99566304       8.20824935      -0.06294884      -0.05890642      -0.03869487
K       -0.09932224       3.66743062       5.07062508       0.22153306       0.10682839       0.06164634
K        4.49195668       3.75103586       4.94896958      -0.03165335       0.15460924       0.03938775
K        9.04958839       3.85616897       5.06792759      -0.40662033      -0.06470091       0.00526001
K       -0.07147880       8.71593728       5.07748773       0.06834464       0.01158966      -0.07169474
K        4.47288041       8.59095238       4.98322390       0.06354488       0.08805723      -0.06977364
K        8.87795297       8.71938124       5.09083080      -0.22392778       0.12925287      -0.05913572
K       -0.98193429       3.88402783      11.64891791      -0.40801360      -0.32692993      -0.10320977
K        2.99854352       3.63750636      11.60920979       0.06124867       0.12639492      -0.26902317
K        7.39298185       3.51881672      11.45800299       0.03775766       0.27348093       0.01958624
K       -1.22726012       8.85878339      11.54967392      -0.14075800      -0.16672682       0.05961918
K        3.12357001       8.57142879      11.58332702      -0.06352159      -0.01756302      -0.15671511
K        7.56382438       8.33925708      11.40569090      -0.11041170       0.24497830       0.01288617
H        1.52871365       0.84680172       3.88040730       0.13915480       0.07536644       0.11437820
H        5.40586321       1.32521086       4.47488705       0.11143270      -0.14069552      -0.10437839
H        9.93202210       1.43589046       4.10731801       0.04584879      -0.07512491      -0.01589807
H        1.13598965       6.09256440       4.12558888       0.05850907       0.06667778      -0.01128299
H        5.96724265       5.95470903       3.73172689       0.06543588       0.01955496       0.16191260
H       10.09883566       6.01022031       3.95566916      -0.05161200       0.11136083      -0.03414522
H        0.02115401       1.42079639      10.57722698       0.12427845      -0.03965474       0.04361916
H        4.08017377       1.11657845      10.68676654       0.08265837       0.06054171      -0.05271906
H        8.88689170       1.13487781      10.37623338       0.05900468      -0.08897307       0.11903355
H       -0.23573997       6.17236236      10.76092416       0.09581375       0.14574342       0.00957526
H        4.44842369       6.11357503      10.14307011       0.03349060       0.01079999       0.25199436
H        9.10610764       5.86744844      10.31568921       0.02606122       0.03903799       0.25210942
H        1.32441709       4.06109553       2.83176798       0.13264546      -0.01775173      -0.15312033
H        6.38041722       3.84995708       2.30616549      -0.26389083       0.02893096      -0.00639863
H       10.80771980       3.54151166       2.07173971      -0.12270890       0.08836378       0.05001448
H        1.64276274       8.55120078       2.82137243      -0.03855247       0.06819853      -0.16896174
H        6.33172637       8.92239285       2.38089877      -0.13228844       0.00169968       0.02227377
H       10.36117914       8.35958969       2.67124985       0.00296623       0.02567744      -0.10991768
H        0.80356070       3.34605399       8.98482130      -0.11187032       0.12400182      -0.09393087
H        4.77327287       3.47481472       9.16762927      -0.10113067       0.07111205      -0.07737058
H        9.10142196       3.17189644       9.37783671       0.05222958       0.11031110      -0.20083931
H        0.40220553       8.13570591       9.26553353      -0.04695272       0.08766272      -0.05081883
H        4.93993725       8.66772786       9.02663639      -0.19368986      -0.01327064      -0.09255310
H        9.50900187       8.37813557       8.95006911      -0.20880512       0.05853145      -0.02702234
S        2.40426509       1.25022084       4.84308163      -0.28575926      -0.03678004       0.01751171
S        6.70290752       1.31657391       4.86382528       0.01698448       0.02931088      -0.00446701
S       11.01030341       1.44557827       4.92310997       0.02690854      -0.34342804      -0.04419387
S        2.19646947       6.26658937       4.94820779      -0.03573497      -0.09776791      -0.06583391
S        6.82852044       6.23664874       4.74505082      -0.17810605      -0.04813471      -0.07439781
S       10.96183727       6.39013359       4.92118861       0.31675396      -0.18855026       0.00987020
S        0.97675438       1.12675036      11.49629934       0.04647424       0.19282478      -0.11930930
S        5.30677039       1.19942896      11.25113900      -0.03651090      -0.18020164       0.03071512
S        9.84317901       1.41535778      11.29616109      -0.10163227      -0.07231479       0.09290955
S        0.92706726       6.19224233      11.45494885       0.13992011       0.20561835      -0.06077606
S        5.17434761       6.07188088      11.29213377       0.13427465      -0.03282687      -0.18263177
S        9.85289090       6.26679530      11.38217708       0.04931402      -0.24697710      -0.11649909
S        0.76357374       3.93385726       1.60740947      -0.05223130      -0.18562799       0.27478663
S        5.20580780       3.99225974       1.63267001       0.28937469      -0.06846915       0.26722434
S        9.55667768       3.79828731       1.62335026      -0.12185193      -0.14415726       0.07714280
S        0.86468345       8.83281528       1.74462045      -0.01271009      -0.06265515       0.22539335
S        5.18015643       8.92945127       1.66468525       0.15690449      -0.11479685       0.04787674
S        9.67089438       8.75053193       1.57115323      -0.18627633      -0.06495736       0.08009754
S       -0.34716086       3.55728960       8.29833013       0.05753061      -0.12481505       0.04307624
S        3.85642542       3.63695001       8.18076047       0.10888530      -0.08209042       0.05365037
S        8.46055262       3.58988841       8.24879348      -0.02531865       0.10344315       0.16262280
S       -0.47851093       8.47341186       8.29176927       0.01926127       0.10644470      -0.05585603
S        3.89379005       8.49110525       8.17575481       0.32277060       0.00582875       0.12433001
S        8.34288489       8.57360892       8.27905224       0.17734972       0.09348726      -0.03070680
72
Lattice="13.194012 0.0 0.054083 0.0 9.924107 0.0 -2.58061 0.0 13.041131" Properties=species:S:1:pos:R:3:forces:R:3 virial="3.4724168006035017 1.4076973419584367 -2.416165195233038 1.4076973419584367 4.169517279335912 -0.8613331387506412 -2.416165195233038 -0.8613331387506412 0.5288110292947064" energy=-260.16071955 pbc="T T T"
K        2.97341298       1.51305277       1.63025398       0.20722793      -0.01214307      -0.11124385
K        7.32630050       1.39978993       1.48688566      -0.02622265      -0.07839342      -0.07580836
K       11.86964672       1.11489830       1.66839494      -0.01168772       0.21381452      -0.15023668
K        3.03880357       6.44274317       1.73349922       0.05887685      -0.10110464      -0.23324813
K        7.45402207       6.34520775       1.39557267      -0.12656761      -0.33499536       0.08846481
K       11.71032297       6.10752182       1.55115695       0.08399873      -0.06637549       0.10888514
K        1.82773176       0.93992418       8.07339950      -0.06519480       0.25093152      -0.03387690
K        6.20567462       1.30123263       8.03480715       0.02529199       0.00451732       0.10556003
K       10.61461682       1.15096736       8.06808006       0.10918164      -0.02100714       0.15077062
K        1.80696496       6.14697193       8.03796721      -0.14413647      -0.02162836      -0.02837963
K        6.22574016       6.17293171       8.12316424       0.03691334       0.01544831      -0.10498319
K       10.67176309       6.04435448       8.07241502       0.20531463      -0.01292526       0.14952577
K        0.09188991       3.66501410       5.03169891       0.03422394       0.14411693       0.04860907
K        4.49125123       3.82017215       4.83349273      -0.13097655      -0.10021607       0.16335638
K        8.99184873       3.84286442       5.10235599      -0.13032975      -0.06941852       0.01141584
K        0.00210212       8.72911282       5.05845885       0.09508895      -0.01261000       0.05309719
K        4.50547125       8.70335997       5.02724165      -0.18662141      -0.11293995      -0.00458471
K        8.81016532       8.75827243       5.09510916       0.01814389       0.01799722      -0.02649894
K       -1.07197735       3.71286278      11.60394709      -0.08942663       0.06911490      -0.15404533
K        3.06537435       3.72845822      11.47199507      -0.00121024      -0.10924634       0.05525332
K        7.36823271       3.56884553      11.46329973       0.09036884      -0.01511559       0.06577342
K       -1.22692782       8.82590472      11.55377613      -0.03808059      -0.11007414      -0.01979721
K        3.13797100       8.62815359      11.44524076      -0.06286044      -0.00672341       0.11442374
K        7.43016926       8.32929864      11.47736924       0.19627309       0.42852558      -0.02767549
H        1.35850426       1.04767785       3.89965810      -0.00839342       0.01708161       0.10499055
H        5.99201252       0.62238888       3.88254330       0.09032823       0.22488541       0.03107758
H       10.11095919       1.19691667       4.11697180       0.10028819       0.04163498       0.09826710
H        1.24546725       6.23151242       3.84109324       0.08785394       0.03218868       0.19419856
H        5.93640809       6.12709593       3.71836202       0.11132837      -0.02423606       0.23819674
H       10.01706131       6.37719503       4.26161842       0.05567481      -0.02716561      -0.01051411
H        0.31388535       1.39768434      10.42619607       0.00480559       0.03315421       0.09666216
H        4.38911886       1.33865456      10.34914112      -0.04690474       0.02957211       0.04711303
H        8.89400914       0.73094918      10.40223963       0.17707246       0.10432065       0.19661433
H        0.14440957       6.17903533      10.27384326       0.07690359       0.01662153       0.22278578
H        4.34402325       6.30363567      10.43696760       0.08034371      -0.00825603       0.08361149
H        9.12698282       5.75725235      10.34934195      -0.02610373      -0.02631376       0.12558430
H        1.79694881       3.95972445       2.72726809      -0.03820096       0.01662500      -0.03574174
H        6.17834960       3.77598298       2.53900809      -0.05155491       0.02123809      -0.09508288
H       10.11979197       3.33228320       2.78333700       0.05441597       0.04841173      -0.29342601
H        2.06722192       9.20540575       2.70580329      -0.11345106      -0.18446289       0.06392890
H        6.26675618       8.60942670       2.23375935      -0.04186361       0.10617883       0.07407211
H       10.44708075       8.62891279       2.44995379      -0.18802120      -0.03675267      -0.03982854
H        0.94813308       3.70536760       8.76662628      -0.26400160      -0.09886868      -0.05525804
H        4.64725221       4.15151149       9.14945805      -0.01431455      -0.12978809       0.02019688
H        9.16246694       3.15457420       9.43070373      -0.02208441       0.04543095      -0.17101683
H        0.45580866       8.80801851       9.15447504      -0.00489919      -0.11801821       0.06469419
H        4.75803558       8.84350146       9.18198477      -0.13751832      -0.07306884      -0.20737270
H        9.23076121       8.00843311       9.16867316      -0.04598663       0.18689960       0.03783497
S        2.28981281       1.23741864       4.86384618       0.11049963       0.07103342       0.03581257
S        6.70579479       1.31936021       4.80742802      -0.00046949      -0.13423226       0.03296940
S       11.18098860       1.37852872       4.93421053      -0.33542054      -0.14686555      -0.26181510
S        2.17140855       6.19770773       4.83441737       0.08418582      -0.01309884       0.00605711
S        6.79773153       6.23179099       4.76823092      -0.16205314       0.05490879      -0.04313652
S       11.16057373       6.34583099       4.98709942      -0.19137906      -0.11156949      -0.24688728
S        1.16130329       1.09557060      11.44236028      -0.25658678       0.16534737      -0.07192624
S        5.34398755       1.13032036      11.28279407       0.09065175      -0.09683953      -0.01511518
S        9.72787312       1.34586511      11.29218837      -0.08893615      -0.16786432       0.01231754