120
Lattice="14.354735 0.25035808 0.0 -17.797483 12.125266 0.0 0.0 0.0 21.411182" Properties=species:S:1:pos:R:3:forces:R:3 virial="31.4762024264332 -6.421901177805903 -0.28555654913599615 -6.421901177805903 12.895897576024344 0.1143867334637074 -0.28555654913599615 0.1143867334637074 32.125305582577134" energy=-423.1021448 pbc="T T T"
K        3.89713010       1.10625996       2.68700999      -0.03416809      -0.01210213      -0.02236390
K       11.08070006       1.21336996       2.65043005      -0.03600357       0.03842770       0.00559558
K       -2.02003999       5.16430998       2.67135991       0.01028111      -0.03363126      -0.00515590
K        5.09894991       5.27280006       2.66191009       0.00901251      -0.00482873       0.01044453
K       -7.95267992       9.17073996       2.65209006      -0.04620436       0.05219010       0.02077216
K       -0.80003410       9.31939006       2.67589994      -0.01622409      -0.01705974      -0.01119960
K        3.84918001       1.06372998      13.38930003       0.01202663       0.06120021      -0.01379842
K       11.07040000       1.23432996      13.37620002       0.00296372       0.00350120       0.02128866
K       -2.06669003       5.15854000      13.36550000       0.01512405      -0.03781456       0.02548914
K        5.10774003       5.25751001      13.37949991      -0.00596976       0.02751337       0.00617502
K       -8.00166998       9.19048995      13.39170001      -0.02787558       0.02071230      -0.01028515
K       -0.83089288       9.35229995      13.39590002       0.01894760      -0.03904731      -0.00659119
K       -2.59350006       3.05363001       8.02706005      -0.05749188      -0.04373391       0.00203200
K        4.58394006       3.16379997       8.04024998      -0.05836556       0.02776226      -0.00516148
K       -8.58426991       7.10281996       8.04254997       0.01817537      -0.01831399      -0.00778162
K       -1.40715994       7.22318999       8.02794005       0.00635359      -0.02140955       0.00432849
K      -14.51550010      11.10570002       8.02883997       0.05980224       0.03935723       0.00040923
K       -7.32765007      11.28760003       8.04931998      -0.00347551      -0.04823364      -0.01648149
K       -2.59580996       3.11619001      18.68690007      -0.04135660      -0.03952307       0.03538779
K        4.54505003       3.21097999      18.74689998       0.00988023       0.00942726      -0.00419998
K       -8.57502993       7.09882996      18.75169994       0.01820067       0.03034393      -0.01052391
K       -1.39183991       7.23272996      18.73869993      -0.01813148       0.02649784      -0.01009838
K      -14.51080006      11.15980005      18.71970007       0.02379130      -0.05052763       0.01394523
K       -7.33043008      11.28120003      18.70630010       0.01133708      -0.03181001       0.01857826
Ca      -0.00202236       0.00243930      21.38870004      -0.00300576       0.02879527       0.01333132
Ca       7.17940007       0.15594900      21.36690004      -0.00221538      -0.03226122       0.07613934
Ca      -5.90596996       4.05510996       0.02012587      -0.02631834      -0.01859470      -0.03420184
Ca       1.25139988       4.17623004      21.39130000      -0.01582981      -0.02132831       0.03047984
Ca     -11.83270008       8.09682003       0.01213950      -0.05927350      -0.01286989      -0.02247726
Ca      -4.68862002       8.21330001       0.01004655       0.01862621      -0.00868604      -0.01034051
Ca      -3.43677998      12.35720002      10.70589996       0.00621979       0.05971853      -0.00291394
Ca       7.17632008       0.14036599      10.69969993      -0.00087667      -0.00661758       0.01555351
Ca      -5.92782000       4.04569996      10.72450007      -0.00645000      -0.07165214       0.00711221
Ca       1.25272005       4.14855995      10.70760001      -0.01032640       0.03544083       0.01993462
Ca       2.47106006       8.32815998      10.71219999      -0.01825536       0.01545298      -0.04877662
Ca      -4.69199000       8.19704005      10.70550000       0.01702688      -0.01535134       0.04107846
Ca       0.01360615       0.00659006       5.35372003      -0.01024150      -0.00226792      -0.02054647
Ca     -10.62199998      12.23800001       5.32309005       0.01858020      -0.02712662       0.04336686
Ca      -5.92075989       4.04091996       5.35213004      -0.01548992      -0.04950869       0.01335070
Ca       1.25958011       4.16370996       5.34469008       0.00695845      -0.00378381      -0.00005858
Ca       2.49908998       8.32482998       5.35874995      -0.00508321       0.00210198      -0.00708789
Ca      -4.70375001       8.21270000       5.35031009       0.02334995      -0.04705359       0.00012392
Ca      -3.46484002      12.36570000      16.06979994       0.02061657       0.08707062       0.05115867
Ca       7.17812996       0.14478299      16.06279999      -0.00522698      -0.01451943      -0.05007219
Ca      -5.96191997       4.06933998      16.07560002       0.01449674      -0.08561103       0.00121283
Ca       1.26344990       4.15342004      16.07550003      -0.01989378       0.04788128      -0.03690760
Ca       2.48125004       8.33700002      16.05479991       0.00487635      -0.04040749       0.04763759
Ca      -4.69972007       8.21555003      16.05929990      -0.01232466      -0.00510332      -0.01458286
Br       2.43081991       1.53864002      10.09850006      -0.07969741      -0.00048318       0.02967348
Br       9.60132997       1.67468998      10.14369992      -0.02694253       0.01407161      -0.03696730
Br      -3.51152997       5.56885996      10.11689997      -0.04045936       0.05305998      -0.00257313
Br       3.66335001       5.73654002      10.12050005      -0.05163033      -0.06566033      -0.01584599
Br      -9.48418014       9.63859006      10.08570003       0.02451484      -0.00460624       0.02100088
Br      -2.26012999       9.75366999      10.15320006      -0.03480935      -0.03975308      -0.03869364
Br       2.40316013       1.56123995      20.79790002      -0.00138919      -0.04114234      -0.00735049
Br       9.58331986       1.69094005      20.77970008       0.00733332       0.00695720       0.01361183
Br      -3.51488991       5.60898995      20.80670001      -0.00204211       0.00815606       0.00498064
Br       3.66078005       5.72051997      20.83210010       0.02539166       0.01616630      -0.01765227
Br      -9.45311994       9.66624998      20.77400000      -0.01663868      -0.02536527       0.02174337
Br      -2.27932998       9.76251003      20.79379999      -0.01727511       0.01085353       0.02648660
Br      -1.14725000       2.61893997       4.74076007       0.00190929      -0.02434850       0.01046011
Br       6.01681992       2.73745002       4.72966009       0.04629749       0.01391579       0.01250683
Br      -7.10351999       6.64072999       4.75251010       0.03748289       0.00619550       0.00213756
Br       0.09309722       6.78019994       4.74428007       0.00845738      -0.00702341       0.00954079
Br     -13.03989995      10.67679995       4.75688997       0.03056885       0.02797877       0.00596279
Br      -5.84389007      10.83100005       4.73155990       0.01516147      -0.01422207       0.01955316
Br      -1.14899999       2.62467998      15.48999991      -0.04234586       0.00609721      -0.04346550
Br       5.98470001       2.74710000      15.43699995       0.07735937       0.00489120       0.04662699
Br      -7.12641997       6.66275994      15.46089997       0.04472470       0.03044850       0.01144073
Br       0.09591844       6.74618002      15.42290005       0.00168611       0.08346929       0.03752292
Br     -13.03009997      10.69349998      15.43610004       0.02776564       0.01284911       0.03672509
Br      -5.86251997      10.82840003      15.46460004      -0.01866432      -0.01898106      -0.02101738
Br       2.42664998       1.54710002       5.97318000      -0.03900254       0.00578248      -0.03140691
Br       9.57759999       1.65143004       5.97008009      -0.00094166       0.05806113      -0.03273682
Br      -3.51239996       5.57327996       5.95241993      -0.04169074       0.05343292       0.00479442
Br       3.66025000       5.71270995       5.94994994      -0.00856562      -0.02782648       0.00772656
Br      -9.43503009       9.60429002       5.92202997      -0.03569322       0.06749813       0.02849414
Br      -2.29473002       9.75737002       5.96033008       0.00111992      -0.02100536      -0.00054447
Br       2.40444013       1.56134995      16.67480008      -0.01579279      -0.08219030       0.00379261
Br       9.57498008       1.68395996      16.69399992      -0.04482413       0.06032329      -0.04311944
Br      -3.54119001       5.61587004      16.65839998      -0.00381721      -0.02052051      -0.00960118
Br       3.65622996       5.71693002      16.68239998      -0.00710286       0.03938435      -0.02367722
Br      -9.45603996       9.64654995      16.67460010      -0.06942680      -0.00965648      -0.03757256
Br      -2.29159993       9.77740997      16.66109993       0.01471385      -0.04802442       0.00292565
Br      -1.16030008       2.63161002       0.56384892      -0.00070391      -0.03470372       0.02090317
Br       6.02239000       2.75459995       0.58374290       0.00410163       0.00769729       0.02306357
Br      -7.10476004       6.66426002       0.60634904       0.03820838       0.00552597      -0.00315216
Br       0.10923912       6.77071997       0.61498910      -0.00423732       0.08146689       0.00204910
Br     -13.00949998      10.70029995       0.60469310       0.00016399       0.02524263      -0.01491241
Br      -5.86118010      10.83120003       0.56333698       0.02833749      -0.00523715       0.03049344
Br      -1.17695001       2.59468005      11.30109999       0.08796180       0.02739366      -0.01512750
Br       5.99613009       2.74323998      11.30379994       0.04766149      -0.00640699      -0.00061516
Br      -7.08809999       6.62977001      11.36580009       0.03019572       0.07792404      -0.05416624
Br       0.07567428       6.77457000      11.33689992       0.03442326      -0.03167945      -0.05017205
Br     -13.02409999      10.70559995      11.28520005      -0.01282585       0.00325787       0.02192585
Br      -5.84735006      10.81950001      11.29840004      -0.00957401      -0.04006275       0.00568215
Br      -4.94452003       3.78397006       2.66610004      -0.01570819      -0.05037817       0.10052682
Br       2.16945004       3.86484002       2.64695994       0.02162445      -0.00533865       0.10791023
Br     -10.90559998       7.81247998       2.68688002       0.00524664      -0.00004496      -0.02845996
Br      -3.74468996       7.89044998       2.68915004      -0.00634133       0.05834121      -0.03930281
Br     -16.87000012      11.82290004       2.67481996       0.01595932       0.03069536      -0.05293564
Br      -9.68930997      11.97179999       2.65737006       0.03303594      -0.01126838      -0.06232949
Br      -4.99049004       3.73999999      13.40979995      -0.01484374       0.02162376      -0.01098766
Br       2.19748009       3.87707997      13.39919991      -0.02401270      -0.02902939      -0.07908640
Br     -10.95619989       7.79881996      13.37360006       0.06469670       0.00309816       0.06107837
Br      -3.72972012       7.92435004      13.38700004      -0.05432479       0.02012412      -0.00888646
Br     -16.91819999      11.86229997      13.40250002       0.05808209      -0.01104969      -0.05874028
Br      -9.66797001      12.00069997      13.39039992      -0.01919944      -0.03945117      -0.03562200
Br       6.25790998       0.42456797       8.00554995      -0.01665608      -0.07019770       0.03485584
Br      13.42910003       0.48930999       8.03056999      -0.01316872       0.03083808      -0.00761112
Br       0.29180797       4.43519002       8.02310006       0.06161695       0.02667983       0.03196107
Br       7.47005997       4.55936003       8.04673993       0.05706912       0.03547939      -0.04861530
Br      -5.63264993       8.46524000       8.02841003      -0.01042257       0.02422395       0.03401619
Br       1.52822000       8.57922995       8.02456008       0.01747954       0.01814157       0.02648514
Br       6.19015995       0.44365600      18.70749998       0.02307181      -0.03025684       0.04473219
Br      13.35820000       0.55525701      18.71990005       0.07360600      -0.01112969       0.06607483
Br       0.32154309       4.51230998      18.73819998      -0.00217172      -0.04095513      -0.03703231
Br       7.49731000       4.61355005      18.77200010      -0.02541090      -0.03229539      -0.09585393
Br      -5.61081994       8.48905998      18.74099992      -0.04068592       0.01137291      -0.01137174
Br       1.54294003       8.58367999      18.74929996       0.01144046       0.05895891      -0.04557937
120
Lattice="14.354735 0.25035808 0.0 -17.797483 12.125266 0.0 0.0 0.0 21.411182" Properties=species:S:1:pos:R:3:forces:R:3 virial="39.51246603099149 -4.9847375795300035 -1.68774067522008 -4.9847375795300035 19.823776962458417 0.7290035890266987 -1.68774067522008 0.7290035890266987 39.289282677274755" energy=-420.28133892 pbc="T T T"
K        4.17103008       1.07638998       2.55101001      -0.25857234       0.10839774       0.16158634
K       10.80880009       1.18607995       2.63643999       0.29224040       0.14241515       0.03705270
K       -2.22567997       5.04427001       2.75876999       0.00561195       0.46638252      -0.19833649
K        5.48862004       5.15440995       2.77987992      -0.25240132       0.24169914       0.03306783
K       -8.01880996       9.33094997       2.90721008       0.02535624       0.02664496      -0.14479589
K       -0.81280906       9.44029004       2.66610004      -0.16354755      -0.16340235       0.04890210
K        3.81589988       1.28434005      13.50270007      -0.05400383      -0.34083353      -0.10978447
K       10.93959987       1.18438004      13.44650000       0.15984473      -0.35807526      -0.06584810
K       -2.23726988       4.90943995      13.13510005       0.35207803       0.32801507       0.12066336
K        5.05470998       5.14422998      13.54050001       0.13868115      -0.04894814      -0.03043922
K       -8.23277001       9.09178004      13.37620002       0.16724174       0.06871554      -0.00266049
K       -0.73906411       9.10830005      13.39909992      -0.06882087       0.20128233      -0.05508622
K       -2.72832989       2.93761994       8.13839991       0.27891328       0.25681785      -0.12452468
K        4.54833991       3.36444004       8.06754003       0.06039358      -0.27494414      -0.12401383
K       -8.56860994       7.25130996       7.94511004      -0.04097906      -0.17937284       0.13043242
K       -1.29766994       7.13506000       7.82661992       0.03380250       0.11233580       0.08552969
K      -14.64989996      11.12720001       7.91672010      -0.20680479       0.00325244       0.14694614
K       -7.42579007      11.40090004       8.31698009       0.20202435      -0.11503938      -0.21454482
K       -2.46794005       2.95278004      18.92409999      -0.12069843      -0.01075967      -0.07552855
K        4.44984000       3.04388999      18.83049994       0.02182014       0.12805276      -0.17518286
K       -8.43062003       7.00463005      18.94179998      -0.04061846       0.07264248      -0.12191009
K       -1.11140999       7.17917996      18.63769996      -0.16569673      -0.05708821      -0.00488558
K      -14.67470005      11.14800001      18.68859990      -0.12092400       0.12397899       0.02237046
K       -7.21778992      11.09199999      18.83289992      -0.16473278       0.42274322      -0.08068496
Ca      14.18600004       0.27546597       0.03027670       0.12682510      -0.05356331       0.12105303
Ca     -10.73739997      12.19299997      21.33499994       0.08919732       0.19998871       0.06362638
Ca      -6.02637996       4.12565001       0.09892330       0.51501633      -0.27344945       0.06022123
Ca       1.40039988       4.11065004       0.02331121      -0.32284569       0.06255361       0.15540818
Ca       2.47200996       8.27072003      21.26519992       0.13138872      -0.07827199       0.59142036
Ca      -4.61602002       8.13876000       0.01881700      -0.12957940       0.13802669      -0.09454810
Ca     -17.73940002      12.10030003      10.63609994       0.16827619      -0.34780377       0.03816622
Ca     -10.65080004      12.18940003      10.65900005      -0.33974600       0.06827521       0.17344759
Ca       8.31710007       4.26674998      10.94800005       0.11693901      -0.06440839      -0.13220648
Ca       1.23855993       4.09155000      10.71259995      -0.08965572       0.27950120      -0.57857448
Ca       2.43266010       8.19196995      10.66330006      -0.19696131       0.31739782      -0.24447406
Ca      -4.86692002       8.10871999      10.76349990       0.16192494       0.24009017       0.03322815
Ca       0.18414999       0.25290502       5.29148008      -0.45271095       0.06468864       0.11629315
Ca       7.08886999       0.21488801       5.43395009       0.24940736       0.00814494       0.06200470
Ca      -5.83049005       4.16704999       5.57563002      -0.21666763       0.15967668      -0.06035019
Ca       1.36534999       4.29483004       5.21061990       0.05230668      -0.03836380      -0.11122153
Ca     -11.75519996       8.13100995       5.31848001      -0.02802622       0.19938369      -0.13742996
Ca      -4.83045992       8.51102996       5.43398006       0.09243571      -0.27348753      -0.07228463
Ca      -3.59715996      12.29080001      15.87909997       0.35503307       0.33483583       0.11550894
Ca     -10.61269990      12.22919995      16.05380001       0.03304977       0.12764688       0.22593648
Ca       8.50353991       4.23448003      16.26289990      -0.15113050      -0.15143431      -0.63366752
Ca       1.28243001       4.14864995      15.99260000      -0.05885749      -0.28734308       0.39614093
Ca     -11.73880004       8.21823000      16.00229991      -0.03818849      -0.45118024      -0.13314781
Ca      -4.63563002       8.15762002      16.03669997      -0.26640538      -0.11905428      -0.12216264
Br       2.48768985       1.59104006      10.04269995      -0.09828258      -0.10592908       0.10918879
Br       9.59645015       1.79339995      10.14670005      -0.31172320      -0.33839167       0.14094674
Br      -3.59819007       5.60736005      10.17530004      -0.08019104      -0.17298529      -0.07493075
Br       3.69013995       5.72459000       9.95715992      -0.24494360      -0.12765368       0.15635562
Br      -9.59139999       9.60280998      10.21050002       0.38424781      -0.02797015      -0.12842097
Br      -2.39790000       9.60755996      10.15810001       0.02495145       0.09772462      -0.15888909
Br       2.29493000       1.47974005      20.80929997       0.19433036      -0.14390204      -0.02223660
Br       9.41383988       1.59438004      20.72290007       0.15964745       0.27282051       0.04663936
Br      -3.49221985       5.45616994      20.91019995      -0.11490306       0.19506929      -0.04228647
Br       3.81871012       5.57542997      20.97419990      -0.03495177       0.39205239      -0.29381669
Br      -9.55811002       9.69923999      20.88780000       0.25564082      -0.35281054      -0.19353138
Br      -2.36119988       9.71344994      21.00029992       0.25610002       0.20687013      -0.16237761
Br      -1.05760987       2.91302996       4.60323991       0.03285525      -0.48076562       0.26492526
Br       6.14445012       2.93774995       5.04735000      -0.25148826      -0.22787937      -0.11881406
Br      -7.23980999       6.80196994       4.98725010       0.32382130      -0.14557331      -0.10360152
Br       0.25562800       6.93941998       4.57032000      -0.27698754      -0.13386282       0.05420781
Br     -12.97779999      10.77490001       4.64053990      -0.03512151      -0.14576059       0.09627156
Br      -5.75950000      11.12310004       4.89439002      -0.29652665       0.08042434      -0.24611787
Br      -1.25588011       2.65379004      15.49389996       0.22911265      -0.09382395      -0.07024681
Br       6.01302997       2.72016002      15.57949994       0.16910257       0.06207587       0.03444241
Br      -7.07251990       6.48868998      15.24439995       0.22963436       0.11897513       0.31998827
Br       0.27530106       6.71211997      15.32680003      -0.19178431       0.22352240       0.22263369
Br     -12.94489995      10.71319997      15.26770003      -0.06935784      -0.19424341       0.13429253
Br      -5.85882012      10.69250004      15.40760005      -0.26092093       0.01664878      -0.08923966
Br       2.57600995       1.64992005       5.77835002       0.09264310       0.11271183       0.13870036
Br       9.61901011       1.79914995       6.00487005      -0.05694181      -0.26581937       0.07801790
Br      -3.56144002       5.81113006       5.76151998       0.23924851       0.09697740       0.31894930
Br       3.70697994       5.80241002       5.86285996       0.09054015      -0.03455113       0.16357212
Br      -9.37720001       9.70371998       5.92754999      -0.09375469       0.31361213       0.07960041
Br      -2.42084008       9.97566006       6.06472993       0.23633493      -0.32943039      -0.17312860
Br       2.46507004       1.39500998      16.44520006      -0.30698968       0.24367347       0.11813294
Br       9.67030000       1.54833997      16.56469993      -0.07509285       0.05401677       0.24427663
Br      -3.52989000       5.57371000      16.57920001       0.26604794      -0.01746617       0.26603030
Br       3.69789000       5.63832003      16.68220000      -0.06048825       0.24615870       0.06867945
Br      -9.31748002       9.62590000      16.66039999      -0.13366455      -0.09361534      -0.01468923
Br      -2.36550991       9.78545999      16.64569993       0.28890373      -0.18835248       0.04481230
Br      -1.14262997       2.68799996       0.73977004       0.04284571      -0.16650272      -0.19560368
Br       6.04694989       2.75143003       0.50538697      -0.23603969      -0.05709530       0.11397743
Br      -6.97169004       6.78154999       0.74449999      -0.39030307      -0.21759698      -0.15072173
Br       0.10724695       6.70515000       0.44658694       0.03509584       0.09156706       0.03620979
Br     -13.05299996      10.64520001       0.67275497      -0.01876875      -0.11475035      -0.21408855
Br      -6.06589000      10.96240004       0.51972004       0.29904579      -0.25925675       0.06405075
Br      -1.17716003       2.47091998      11.12140001       0.00905102       0.32480248       0.22375166
Br       5.98916006       2.56712996      11.52350008       0.08093421       0.24315874      -0.21413398
Br      -7.33456992       6.51263995      11.25589992       0.18794318       0.35090998       0.15495004
Br      -0.01426865       6.81999994      11.15640001       0.04534725      -0.44162954      -0.03268472
Br     -13.11200011      10.56150005      11.33209996       0.12499441       0.12092748      -0.00336987
Br      -5.78576987      10.88369996      11.38679996      -0.23262581      -0.16297255      -0.04257508
Br      -5.10190007       3.72482002       2.84537994      -0.20400888       0.09095562      -0.34101734
Br       2.47821004       3.89640996       2.59675993      -0.00619153      -0.06078883       0.19477168
Br     -10.80390001       7.78590002       2.63467999      -0.08078420      -0.02651198      -0.18659604
Br      -4.14786000       8.03479005       2.76139008       0.39495053       0.02728657      -0.04925506
Br     -16.80979989      11.95689996       2.68610001       0.06394880      -0.04399109      -0.36647537
Br      -9.86380994      12.20719994       2.71187993      -0.15066129      -0.18092217      -0.05628310
Br      -4.90470002       3.53202002      13.48700011      -0.48226251       0.27846454       0.12287300
Br       2.08244002       4.00566998      13.34209993       0.08322065      -0.16774261      -0.09749587
Br     -10.99200015       7.49640006      13.24559995      -0.01098214       0.24947360       0.50269528
Br      -3.70995006       7.89064002      13.39439996      -0.06181179      -0.11476878      -0.15056425
Br     -16.83819993      11.65869996      13.33739996       0.07711437       0.15292499      -0.17734824
Br      -9.89030993      11.91719996      13.42610007       0.32396349      -0.05439955      -0.46458661
Br     -11.84170001      12.21949999       8.04129999       0.50252067       0.50671972       0.12163525
Br      13.50970008       0.53061494       7.96076996      -0.08501980       0.09194113       0.12370504
Br       0.47021600       4.37114003       7.88476005      -0.16709587       0.03657117       0.33239535
Br       7.57672000       4.58896002       8.24701006      -0.09384980       0.03788212      -0.16889514
Br      -5.70089002       8.63021997       8.06887010      -0.06412899       0.00130614       0.33091950
Br       1.61322991       8.85065004       7.98796002      -0.03362172      -0.36120120      -0.11225191
Br       6.11006004       0.33552502      18.65109993      -0.01636895      -0.03584742       0.19771877
Br      13.62880002       0.47564699      18.63470003      -0.18722048       0.00131091       0.24476377
Br       0.46397296       4.29651998      18.76039995      -0.01629066       0.10278049      -0.20054489
Br       7.51449004       4.46156000      18.82369996      -0.16069156       0.13190085       0.07839074
Br      -5.50116010       8.60123003      18.71439995       0.00722887      -0.42934458       0.14998173
Br       1.59828006       8.91247998      18.64980006       0.06024104      -0.27487096      -0.06734752
120
Lattice="14.354735 0.25035808 0.0 -17.797483 12.125266 0.0 0.0 0.0 21.411182" Properties=species:S:1:pos:R:3:forces:R:3 virial="42.071655613961795 -3.115277681976653 3.379891888191485 -3.115277681976653 24.23367048704569 1.848944430886478 3.379891888191485 1.848944430886478 45.79432546055142" energy=-416.83447534 pbc="T T T"
K        3.86490991       1.10647002       2.32630009       0.37489951       0.00085693       0.18871407
K       10.96920004       1.21675996       2.72270992       0.01904556       0.50026415       0.02115236
K       -1.98677990       5.08941998       2.66699995      -0.23022516       0.01482704       0.10241032
K        5.45017986       5.48025006       2.77540991      -0.26461854      -0.11526192      -0.19285135
K       -8.10835001       9.51881003       2.56287010       0.13333015      -0.79640860       0.13048433
K       -0.76294607       9.58747006       2.54493994      -0.11029638      -0.28466767       0.03598077
K        3.76374014       1.05003995      13.72210002       0.20545256       0.07175503      -0.25672942
K       10.60359996       1.22707003      13.13750003       0.80980079       0.40230463      -0.11592812
K       -1.99559997       5.36656999      13.58729993      -0.07251739      -0.41711804      -0.21635146
K        4.94197000       5.28293001      13.45860010      -0.00806146      -0.05691084      -0.04398367
K       -7.80629997       8.95306994      13.63660003       0.27837948       0.22180909      -0.10449217
K       -0.85307908       9.04400001      12.98339990       0.10551420       0.40857317       0.31477762
K       -2.60253994       3.32402996       8.01007992      -0.20759279      -0.35616942      -0.02023699
K        4.31863012       3.44814995       8.13511993       0.14541300      -0.50711977       0.10543003
K       -9.09153997       7.03165999       7.89245009       0.76229395       0.24389838       0.19037507
K       -1.30431993       7.12122996       7.85636990      -0.11250120       0.01184747       0.00361584
K      -14.51440004      10.89459999       7.61117996       0.00462151       0.37741381       0.32793580
K       -7.25183002      11.37670006       7.90453007      -0.00959607      -0.23398712      -0.00678604
K       -2.54441991       2.95940997      18.85180000      -0.08647078       0.30057563      -0.27682656
K        4.63798988       3.08558003      18.72049999      -0.06490028      -0.07794857       0.07475899
K       -8.79830001       7.03608005      18.68189992       0.24221448      -0.08561691       0.21638149
K       -1.49004001       7.12671000      18.76069992       0.16580266       0.06668168       0.15071229
K      -14.21989996      11.01950000      18.68829993      -0.05127887       0.05394775       0.01178712
K       -7.30520007      11.21090001      18.71790003      -0.12634065       0.09899058      -0.03361832
Ca       0.05503836       0.04744295       0.32202396       0.12150137       0.30337941      -0.98767847
Ca     -10.53779991      12.13789995      21.35449996       0.13893476       0.28448672       0.35061000
Ca      -5.78777002       4.15413000      21.34230009      -0.68740532       0.57788330       0.29285116
Ca       1.14384996       4.13381002       0.00226316      -0.12538891      -0.06883550       0.25629975
Ca       2.56707990       8.01298003      21.34169993      -0.14387768       0.22462626       0.58511935
Ca      -4.61376011       8.44335005       0.03871634       0.06497791      -0.34931453       0.57004542
Ca     -17.67359993      12.04879999      10.74999993       0.00655953       0.19527616      -0.09989133
Ca       7.23194986       0.21883406      10.73730010      -0.25532853      -0.14091576      -0.50761352
Ca      -6.09074007       4.18240001      10.83749994      -0.11271214       0.19381341      -0.58238229
Ca       0.99330100       4.11344995      10.53850006       0.49741205      -0.41405303       0.69885321
Ca     -11.74330004       8.08975001      10.60519996      -0.03061533       0.66181341       0.55893264
Ca      -4.47636994       8.30659000      10.71289992      -0.27920638      -0.28695278      -0.30118468